VARIABLES  = "X","Y","Z", "PRESSURE1", "PRESSURE2", "PRESSURE_W", "SATURATION1", SATURATION2, "VELOCITY_X1", "VELOCITY_Y1", "VELOCITY_X2", "VELOCITY_Y2", "Ki"
ZONE T="0.000000000000e+000s", N=451, E=400, F=FEPOINT, ET=QUADRILATERAL
STRANDID=1, SOLUTIONTIME=0.000000000000e+000
0.000000000000e+000 0.000000000000e+000 0.000000000000e+000 1.875000000000e+006 1.013250000000e+005 -1.773675000000e+006 9.000000000000e-001 1.000000000000e-001 0.000000000000e+000 0.000000000000e+000 0.000000000000e+000 0.000000000000e+000 6.240555826170e-019 
5.000000000000e-003 0.000000000000e+000 0.000000000000e+000 1.875000000000e+006 1.013250000000e+005 -1.773675000000e+006 9.000000000000e-001 1.000000000000e-001 0.000000000000e+000 0.000000000000e+000 0.000000000000e+000 0.000000000000e+000 7.568761170100e-019 
5.000000000000e-003 5.000000000000e-003 0.000000000000e+000 1.875000000000e+006 1.013250000000e+005 -1.773675000000e+006 9.000000000000e-001 1.000000000000e-001 0.000000000000e+000 0.000000000000e+000 0.000000000000e+000 0.000000000000e+000 2.090976579870e-019 
0.000000000000e+000 5.000000000000e-003 0.000000000000e+000 1.875000000000e+006 1.013250000000e+005 -1.773675000000e+006 9.000000000000e-001 1.000000000000e-001 0.000000000000e+000 0.000000000000e+000 0.000000000000e+000 0.000000000000e+000 3.784740240820e-017 
5.000000000000e-003 1.000000000000e-002 0.000000000000e+000 1.875000000000e+006 1.013250000000e+005 -1.773675000000e+006 9.000000000000e-001 1.000000000000e-001 0.000000000000e+000 0.000000000000e+000 0.000000000000e+000 0.000000000000e+000 7.765067311850e-017 
0.000000000000e+000 1.000000000000e-002 0.000000000000e+000 1.875000000000e+006 1.013250000000e+005 -1.773675000000e+006 9.000000000000e-001 1.000000000000e-001 0.000000000000e+000 0.000000000000e+000 0.000000000000e+000 0.000000000000e+000 6.672311809810e-018 
5.000000000000e-003 1.500000000000e-002 0.000000000000e+000 1.875000000000e+006 1.013250000000e+005 -1.773675000000e+006 9.000000000000e-001 1.000000000000e-001 0.000000000000e+000 0.000000000000e+000 0.000000000000e+000 0.000000000000e+000 1.579410560700e-018 
0.000000000000e+000 1.500000000000e-002 0.000000000000e+000 1.875000000000e+006 1.013250000000e+005 -1.773675000000e+006 9.000000000000e-001 1.000000000000e-001 0.000000000000e+000 0.000000000000e+000 0.000000000000e+000 0.000000000000e+000 1.838360226340e-016 
5.000000000000e-003 2.000000000000e-002 0.000000000000e+000 1.875000000000e+006 1.013250000000e+005 -1.773675000000e+006 9.000000000000e-001 1.000000000000e-001 0.000000000000e+000 0.000000000000e+000 0.000000000000e+000 0.000000000000e+000 8.303387486310e-018 
0.000000000000e+000 2.000000000000e-002 0.000000000000e+000 1.875000000000e+006 1.013250000000e+005 -1.773675000000e+006 9.000000000000e-001 1.000000000000e-001 0.000000000000e+000 0.000000000000e+000 0.000000000000e+000 0.000000000000e+000 4.544194198960e-018 
5.000000000000e-003 2.500000000000e-002 0.000000000000e+000 1.875000000000e+006 1.013250000000e+005 -1.773675000000e+006 9.000000000000e-001 1.000000000000e-001 0.000000000000e+000 0.000000000000e+000 0.000000000000e+000 0.000000000000e+000 2.283239901080e-019 
0.000000000000e+000 2.500000000000e-002 0.000000000000e+000 1.875000000000e+006 1.013250000000e+005 -1.773675000000e+006 9.000000000000e-001 1.000000000000e-001 0.000000000000e+000 0.000000000000e+000 0.000000000000e+000 0.000000000000e+000 7.787650504580e-019 
5.000000000000e-003 3.000000000000e-002 0.000000000000e+000 1.875000000000e+006 1.013250000000e+005 -1.773675000000e+006 9.000000000000e-001 1.000000000000e-001 0.000000000000e+000 0.000000000000e+000 0.000000000000e+000 0.000000000000e+000 2.349475884020e-018 
0.000000000000e+000 3.000000000000e-002 0.000000000000e+000 1.875000000000e+006 1.013250000000e+005 -1.773675000000e+006 9.000000000000e-001 1.000000000000e-001 0.000000000000e+000 0.000000000000e+000 0.000000000000e+000 0.000000000000e+000 7.320304979510e-017 
5.000000000000e-003 3.500000000000e-002 0.000000000000e+000 1.875000000000e+006 1.013250000000e+005 -1.773675000000e+006 9.000000000000e-001 1.000000000000e-001 0.000000000000e+000 0.000000000000e+000 0.000000000000e+000 0.000000000000e+000 3.648007486150e-018 
0.000000000000e+000 3.500000000000e-002 0.000000000000e+000 1.875000000000e+006 1.013250000000e+005 -1.773675000000e+006 9.000000000000e-001 1.000000000000e-001 0.000000000000e+000 0.000000000000e+000 0.000000000000e+000 0.000000000000e+000 2.754973471380e-018 
5.000000000000e-003 4.000000000000e-002 0.000000000000e+000 1.875000000000e+006 1.013250000000e+005 -1.773675000000e+006 9.000000000000e-001 1.000000000000e-001 0.000000000000e+000 0.000000000000e+000 0.000000000000e+000 0.000000000000e+000 2.729542997820e-019 
0.000000000000e+000 4.000000000000e-002 0.000000000000e+000 1.875000000000e+006 1.013250000000e+005 -1.773675000000e+006 9.000000000000e-001 1.000000000000e-001 0.000000000000e+000 0.000000000000e+000 0.000000000000e+000 0.000000000000e+000 1.049273952610e-019 
5.000000000000e-003 4.500000000000e-002 0.000000000000e+000 1.875000000000e+006 1.013250000000e+005 -1.773675000000e+006 9.000000000000e-001 1.000000000000e-001 0.000000000000e+000 0.000000000000e+000 0.000000000000e+000 0.000000000000e+000 7.843635013670e-021 
0.000000000000e+000 4.500000000000e-002 0.000000000000e+000 1.875000000000e+006 1.013250000000e+005 -1.773675000000e+006 9.000000000000e-001 1.000000000000e-001 0.000000000000e+000 0.000000000000e+000 0.000000000000e+000 0.000000000000e+000 1.875361863090e-018 
5.000000000000e-003 5.000000000000e-002 0.000000000000e+000 1.875000000000e+006 1.013250000000e+005 -1.773675000000e+006 9.000000000000e-001 1.000000000000e-001 0.000000000000e+000 0.000000000000e+000 0.000000000000e+000 0.000000000000e+000 9.412835940860e-020 
0.000000000000e+000 5.000000000000e-002 0.000000000000e+000 1.875000000000e+006 1.013250000000e+005 -1.773675000000e+006 9.000000000000e-001 1.000000000000e-001 0.000000000000e+000 0.000000000000e+000 0.000000000000e+000 0.000000000000e+000 1.178849031030e-018 
5.000000000000e-003 5.500000000000e-002 0.000000000000e+000 1.875000000000e+006 1.013250000000e+005 -1.773675000000e+006 9.000000000000e-001 1.000000000000e-001 0.000000000000e+000 0.000000000000e+000 0.000000000000e+000 0.000000000000e+000 1.043123457130e-018 
0.000000000000e+000 5.500000000000e-002 0.000000000000e+000 1.875000000000e+006 1.013250000000e+005 -1.773675000000e+006 9.000000000000e-001 1.000000000000e-001 0.000000000000e+000 0.000000000000e+000 0.000000000000e+000 0.000000000000e+000 6.845529606520e-019 
5.000000000000e-003 6.000000000000e-002 0.000000000000e+000 1.875000000000e+006 1.013250000000e+005 -1.773675000000e+006 9.000000000000e-001 1.000000000000e-001 0.000000000000e+000 0.000000000000e+000 0.000000000000e+000 0.000000000000e+000 1.554305230150e-019 
0.000000000000e+000 6.000000000000e-002 0.000000000000e+000 1.875000000000e+006 1.013250000000e+005 -1.773675000000e+006 9.000000000000e-001 1.000000000000e-001 0.000000000000e+000 0.000000000000e+000 0.000000000000e+000 0.000000000000e+000 2.679419796810e-018 
5.000000000000e-003 6.500000000000e-002 0.000000000000e+000 1.875000000000e+006 1.013250000000e+005 -1.773675000000e+006 9.000000000000e-001 1.000000000000e-001 0.000000000000e+000 0.000000000000e+000 0.000000000000e+000 0.000000000000e+000 2.966965048260e-018 
0.000000000000e+000 6.500000000000e-002 0.000000000000e+000 1.875000000000e+006 1.013250000000e+005 -1.773675000000e+006 9.000000000000e-001 1.000000000000e-001 0.000000000000e+000 0.000000000000e+000 0.000000000000e+000 0.000000000000e+000 2.263607649480e-019 
5.000000000000e-003 7.000000000000e-002 0.000000000000e+000 1.875000000000e+006 1.013250000000e+005 -1.773675000000e+006 9.000000000000e-001 1.000000000000e-001 0.000000000000e+000 0.000000000000e+000 0.000000000000e+000 0.000000000000e+000 1.716723902740e-018 
0.000000000000e+000 7.000000000000e-002 0.000000000000e+000 1.875000000000e+006 1.013250000000e+005 -1.773675000000e+006 9.000000000000e-001 1.000000000000e-001 0.000000000000e+000 0.000000000000e+000 0.000000000000e+000 0.000000000000e+000 7.325815213210e-017 
5.000000000000e-003 7.500000000000e-002 0.000000000000e+000 1.875000000000e+006 1.013250000000e+005 -1.773675000000e+006 9.000000000000e-001 1.000000000000e-001 0.000000000000e+000 0.000000000000e+000 0.000000000000e+000 0.000000000000e+000 2.154719525910e-018 
0.000000000000e+000 7.500000000000e-002 0.000000000000e+000 1.875000000000e+006 1.013250000000e+005 -1.773675000000e+006 9.000000000000e-001 1.000000000000e-001 0.000000000000e+000 0.000000000000e+000 0.000000000000e+000 0.000000000000e+000 4.846414783550e-017 
5.000000000000e-003 8.000000000000e-002 0.000000000000e+000 1.875000000000e+006 1.013250000000e+005 -1.773675000000e+006 9.000000000000e-001 1.000000000000e-001 0.000000000000e+000 0.000000000000e+000 0.000000000000e+000 0.000000000000e+000 8.811917554570e-018 
0.000000000000e+000 8.000000000000e-002 0.000000000000e+000 1.875000000000e+006 1.013250000000e+005 -1.773675000000e+006 9.000000000000e-001 1.000000000000e-001 0.000000000000e+000 0.000000000000e+000 0.000000000000e+000 0.000000000000e+000 1.260072403990e-018 
5.000000000000e-003 8.500000000000e-002 0.000000000000e+000 1.875000000000e+006 1.013250000000e+005 -1.773675000000e+006 9.000000000000e-001 1.000000000000e-001 0.000000000000e+000 0.000000000000e+000 0.000000000000e+000 0.000000000000e+000 3.821085803360e-017 
0.000000000000e+000 8.500000000000e-002 0.000000000000e+000 1.875000000000e+006 1.013250000000e+005 -1.773675000000e+006 9.000000000000e-001 1.000000000000e-001 0.000000000000e+000 0.000000000000e+000 0.000000000000e+000 0.000000000000e+000 4.216285069780e-018 
5.000000000000e-003 9.000000000000e-002 0.000000000000e+000 1.875000000000e+006 1.013250000000e+005 -1.773675000000e+006 9.000000000000e-001 1.000000000000e-001 0.000000000000e+000 0.000000000000e+000 0.000000000000e+000 0.000000000000e+000 5.907859778050e-017 
0.000000000000e+000 9.000000000000e-002 0.000000000000e+000 1.875000000000e+006 1.013250000000e+005 -1.773675000000e+006 9.000000000000e-001 1.000000000000e-001 0.000000000000e+000 0.000000000000e+000 0.000000000000e+000 0.000000000000e+000 2.485236068020e-019 
5.000000000000e-003 9.500000000000e-002 0.000000000000e+000 1.875000000000e+006 1.013250000000e+005 -1.773675000000e+006 9.000000000000e-001 1.000000000000e-001 0.000000000000e+000 0.000000000000e+000 0.000000000000e+000 0.000000000000e+000 5.454205675470e-017 
0.000000000000e+000 9.500000000000e-002 0.000000000000e+000 1.875000000000e+006 1.013250000000e+005 -1.773675000000e+006 9.000000000000e-001 1.000000000000e-001 0.000000000000e+000 0.000000000000e+000 0.000000000000e+000 0.000000000000e+000 7.947637185520e-019 
5.000000000000e-003 1.000000000000e-001 0.000000000000e+000 1.875000000000e+006 1.013250000000e+005 -1.773675000000e+006 9.000000000000e-001 1.000000000000e-001 0.000000000000e+000 0.000000000000e+000 0.000000000000e+000 0.000000000000e+000 1.522197497290e-018 
0.000000000000e+000 1.000000000000e-001 0.000000000000e+000 1.875000000000e+006 1.013250000000e+005 -1.773675000000e+006 9.000000000000e-001 1.000000000000e-001 0.000000000000e+000 0.000000000000e+000 0.000000000000e+000 0.000000000000e+000 4.077826429650e-019 
5.000000000000e-003 1.050000000000e-001 0.000000000000e+000 1.875000000000e+006 1.013250000000e+005 -1.773675000000e+006 9.000000000000e-001 1.000000000000e-001 0.000000000000e+000 0.000000000000e+000 0.000000000000e+000 0.000000000000e+000 1.662800247010e-017 
0.000000000000e+000 1.050000000000e-001 0.000000000000e+000 1.875000000000e+006 1.013250000000e+005 -1.773675000000e+006 9.000000000000e-001 1.000000000000e-001 0.000000000000e+000 0.000000000000e+000 0.000000000000e+000 0.000000000000e+000 8.261724405710e-019 
5.000000000000e-003 1.100000000000e-001 0.000000000000e+000 1.875000000000e+006 1.013250000000e+005 -1.773675000000e+006 9.000000000000e-001 1.000000000000e-001 0.000000000000e+000 0.000000000000e+000 0.000000000000e+000 0.000000000000e+000 1.039800048260e-018 
0.000000000000e+000 1.100000000000e-001 0.000000000000e+000 1.875000000000e+006 1.013250000000e+005 -1.773675000000e+006 9.000000000000e-001 1.000000000000e-001 0.000000000000e+000 0.000000000000e+000 0.000000000000e+000 0.000000000000e+000 1.416076724560e-019 
5.000000000000e-003 1.150000000000e-001 0.000000000000e+000 1.875000000000e+006 1.013250000000e+005 -1.773675000000e+006 9.000000000000e-001 1.000000000000e-001 0.000000000000e+000 0.000000000000e+000 0.000000000000e+000 0.000000000000e+000 1.874769378200e-018 
0.000000000000e+000 1.150000000000e-001 0.000000000000e+000 1.875000000000e+006 1.013250000000e+005 -1.773675000000e+006 9.000000000000e-001 1.000000000000e-001 0.000000000000e+000 0.000000000000e+000 0.000000000000e+000 0.000000000000e+000 4.126569828610e-018 
5.000000000000e-003 1.200000000000e-001 0.000000000000e+000 1.875000000000e+006 1.013250000000e+005 -1.773675000000e+006 9.000000000000e-001 1.000000000000e-001 0.000000000000e+000 0.000000000000e+000 0.000000000000e+000 0.000000000000e+000 2.154442320650e-018 
0.000000000000e+000 1.200000000000e-001 0.000000000000e+000 1.875000000000e+006 1.013250000000e+005 -1.773675000000e+006 9.000000000000e-001 1.000000000000e-001 0.000000000000e+000 0.000000000000e+000 0.000000000000e+000 0.000000000000e+000 6.150716423330e-018 
5.000000000000e-003 1.250000000000e-001 0.000000000000e+000 1.875000000000e+006 1.013250000000e+005 -1.773675000000e+006 9.000000000000e-001 1.000000000000e-001 0.000000000000e+000 0.000000000000e+000 0.000000000000e+000 0.000000000000e+000 1.533096631520e-018 
0.000000000000e+000 1.250000000000e-001 0.000000000000e+000 1.875000000000e+006 1.013250000000e+005 -1.773675000000e+006 9.000000000000e-001 1.000000000000e-001 0.000000000000e+000 0.000000000000e+000 0.000000000000e+000 0.000000000000e+000 8.575717936410e-020 
5.000000000000e-003 1.300000000000e-001 0.000000000000e+000 1.875000000000e+006 1.013250000000e+005 -1.773675000000e+006 9.000000000000e-001 1.000000000000e-001 0.000000000000e+000 0.000000000000e+000 0.000000000000e+000 0.000000000000e+000 3.517541977570e-019 
0.000000000000e+000 1.300000000000e-001 0.000000000000e+000 1.875000000000e+006 1.013250000000e+005 -1.773675000000e+006 9.000000000000e-001 1.000000000000e-001 0.000000000000e+000 0.000000000000e+000 0.000000000000e+000 0.000000000000e+000 1.263039616300e-018 
5.000000000000e-003 1.350000000000e-001 0.000000000000e+000 1.875000000000e+006 1.013250000000e+005 -1.773675000000e+006 9.000000000000e-001 1.000000000000e-001 0.000000000000e+000 0.000000000000e+000 0.000000000000e+000 0.000000000000e+000 2.295036486010e-020 
0.000000000000e+000 1.350000000000e-001 0.000000000000e+000 1.875000000000e+006 1.013250000000e+005 -1.773675000000e+006 9.000000000000e-001 1.000000000000e-001 0.000000000000e+000 0.000000000000e+000 0.000000000000e+000 0.000000000000e+000 3.626889828240e-018 
5.000000000000e-003 1.400000000000e-001 0.000000000000e+000 1.875000000000e+006 1.013250000000e+005 -1.773675000000e+006 9.000000000000e-001 1.000000000000e-001 0.000000000000e+000 0.000000000000e+000 0.000000000000e+000 0.000000000000e+000 3.245401853810e-018 
0.000000000000e+000 1.400000000000e-001 0.000000000000e+000 1.875000000000e+006 1.013250000000e+005 -1.773675000000e+006 9.000000000000e-001 1.000000000000e-001 0.000000000000e+000 0.000000000000e+000 0.000000000000e+000 0.000000000000e+000 1.664298157940e-017 
5.000000000000e-003 1.450000000000e-001 0.000000000000e+000 1.875000000000e+006 1.013250000000e+005 -1.773675000000e+006 9.000000000000e-001 1.000000000000e-001 0.000000000000e+000 0.000000000000e+000 0.000000000000e+000 0.000000000000e+000 8.565354344840e-020 
0.000000000000e+000 1.450000000000e-001 0.000000000000e+000 1.875000000000e+006 1.013250000000e+005 -1.773675000000e+006 9.000000000000e-001 1.000000000000e-001 0.000000000000e+000 0.000000000000e+000 0.000000000000e+000 0.000000000000e+000 1.889264818700e-018 
5.000000000000e-003 1.500000000000e-001 0.000000000000e+000 1.875000000000e+006 1.013250000000e+005 -1.773675000000e+006 9.000000000000e-001 1.000000000000e-001 0.000000000000e+000 0.000000000000e+000 0.000000000000e+000 0.000000000000e+000 2.381847555550e-017 
0.000000000000e+000 1.500000000000e-001 0.000000000000e+000 1.875000000000e+006 1.013250000000e+005 -1.773675000000e+006 9.000000000000e-001 1.000000000000e-001 0.000000000000e+000 0.000000000000e+000 0.000000000000e+000 0.000000000000e+000 1.064659256580e-017 
5.000000000000e-003 1.550000000000e-001 0.000000000000e+000 1.875000000000e+006 1.013250000000e+005 -1.773675000000e+006 9.000000000000e-001 1.000000000000e-001 0.000000000000e+000 0.000000000000e+000 0.000000000000e+000 0.000000000000e+000 1.140457251880e-018 
0.000000000000e+000 1.550000000000e-001 0.000000000000e+000 1.875000000000e+006 1.013250000000e+005 -1.773675000000e+006 9.000000000000e-001 1.000000000000e-001 0.000000000000e+000 0.000000000000e+000 0.000000000000e+000 0.000000000000e+000 1.453363291860e-019 
5.000000000000e-003 1.600000000000e-001 0.000000000000e+000 1.875000000000e+006 1.013250000000e+005 -1.773675000000e+006 9.000000000000e-001 1.000000000000e-001 0.000000000000e+000 0.000000000000e+000 0.000000000000e+000 0.000000000000e+000 1.537302383840e-017 
0.000000000000e+000 1.600000000000e-001 0.000000000000e+000 1.875000000000e+006 1.013250000000e+005 -1.773675000000e+006 9.000000000000e-001 1.000000000000e-001 0.000000000000e+000 0.000000000000e+000 0.000000000000e+000 0.000000000000e+000 9.437167889090e-018 
5.000000000000e-003 1.650000000000e-001 0.000000000000e+000 1.875000000000e+006 1.013250000000e+005 -1.773675000000e+006 9.000000000000e-001 1.000000000000e-001 0.000000000000e+000 0.000000000000e+000 0.000000000000e+000 0.000000000000e+000 5.064897761500e-017 
0.000000000000e+000 1.650000000000e-001 0.000000000000e+000 1.875000000000e+006 1.013250000000e+005 -1.773675000000e+006 9.000000000000e-001 1.000000000000e-001 0.000000000000e+000 0.000000000000e+000 0.000000000000e+000 0.000000000000e+000 5.916999454810e-018 
5.000000000000e-003 1.700000000000e-001 0.000000000000e+000 1.875000000000e+006 1.013250000000e+005 -1.773675000000e+006 9.000000000000e-001 1.000000000000e-001 0.000000000000e+000 0.000000000000e+000 0.000000000000e+000 0.000000000000e+000 4.095036918940e-020 
0.000000000000e+000 1.700000000000e-001 0.000000000000e+000 1.875000000000e+006 1.013250000000e+005 -1.773675000000e+006 9.000000000000e-001 1.000000000000e-001 0.000000000000e+000 0.000000000000e+000 0.000000000000e+000 0.000000000000e+000 7.424845582540e-019 
5.000000000000e-003 1.750000000000e-001 0.000000000000e+000 1.875000000000e+006 1.013250000000e+005 -1.773675000000e+006 9.000000000000e-001 1.000000000000e-001 0.000000000000e+000 0.000000000000e+000 0.000000000000e+000 0.000000000000e+000 3.192488725040e-019 
0.000000000000e+000 1.750000000000e-001 0.000000000000e+000 1.875000000000e+006 1.013250000000e+005 -1.773675000000e+006 9.000000000000e-001 1.000000000000e-001 0.000000000000e+000 0.000000000000e+000 0.000000000000e+000 0.000000000000e+000 5.181138568330e-018 
5.000000000000e-003 1.800000000000e-001 0.000000000000e+000 1.875000000000e+006 1.013250000000e+005 -1.773675000000e+006 9.000000000000e-001 1.000000000000e-001 0.000000000000e+000 0.000000000000e+000 0.000000000000e+000 0.000000000000e+000 1.259936123810e-018 
0.000000000000e+000 1.800000000000e-001 0.000000000000e+000 1.875000000000e+006 1.013250000000e+005 -1.773675000000e+006 9.000000000000e-001 1.000000000000e-001 0.000000000000e+000 0.000000000000e+000 0.000000000000e+000 0.000000000000e+000 1.369997014830e-018 
5.000000000000e-003 1.850000000000e-001 0.000000000000e+000 1.875000000000e+006 1.013250000000e+005 -1.773675000000e+006 9.000000000000e-001 1.000000000000e-001 0.000000000000e+000 0.000000000000e+000 0.000000000000e+000 0.000000000000e+000 2.330229535430e-018 
0.000000000000e+000 1.850000000000e-001 0.000000000000e+000 1.875000000000e+006 1.013250000000e+005 -1.773675000000e+006 9.000000000000e-001 1.000000000000e-001 0.000000000000e+000 0.000000000000e+000 0.000000000000e+000 0.000000000000e+000 7.621803849160e-021 
5.000000000000e-003 1.900000000000e-001 0.000000000000e+000 1.875000000000e+006 1.013250000000e+005 -1.773675000000e+006 9.000000000000e-001 1.000000000000e-001 0.000000000000e+000 0.000000000000e+000 0.000000000000e+000 0.000000000000e+000 1.950576185590e-019 
0.000000000000e+000 1.900000000000e-001 0.000000000000e+000 1.875000000000e+006 1.013250000000e+005 -1.773675000000e+006 9.000000000000e-001 1.000000000000e-001 0.000000000000e+000 0.000000000000e+000 0.000000000000e+000 0.000000000000e+000 3.965184475610e-019 
5.000000000000e-003 1.950000000000e-001 0.000000000000e+000 1.875000000000e+006 1.013250000000e+005 -1.773675000000e+006 9.000000000000e-001 1.000000000000e-001 0.000000000000e+000 0.000000000000e+000 0.000000000000e+000 0.000000000000e+000 1.243155336130e-018 
0.000000000000e+000 1.950000000000e-001 0.000000000000e+000 1.875000000000e+006 1.013250000000e+005 -1.773675000000e+006 9.000000000000e-001 1.000000000000e-001 0.000000000000e+000 0.000000000000e+000 0.000000000000e+000 0.000000000000e+000 1.275502848310e-017 
5.000000000000e-003 2.000000000000e-001 0.000000000000e+000 1.875000000000e+006 1.013250000000e+005 -1.773675000000e+006 9.000000000000e-001 1.000000000000e-001 0.000000000000e+000 0.000000000000e+000 0.000000000000e+000 0.000000000000e+000 2.058992443910e-020 
0.000000000000e+000 2.000000000000e-001 0.000000000000e+000 1.875000000000e+006 1.013250000000e+005 -1.773675000000e+006 9.000000000000e-001 1.000000000000e-001 0.000000000000e+000 0.000000000000e+000 0.000000000000e+000 0.000000000000e+000 5.815652043520e-018 
1.000000000000e-002 0.000000000000e+000 0.000000000000e+000 1.875000000000e+006 1.013250000000e+005 -1.773675000000e+006 9.000000000000e-001 1.000000000000e-001 0.000000000000e+000 0.000000000000e+000 0.000000000000e+000 0.000000000000e+000 2.352733160850e-019 
1.000000000000e-002 5.000000000000e-003 0.000000000000e+000 1.875000000000e+006 1.013250000000e+005 -1.773675000000e+006 9.000000000000e-001 1.000000000000e-001 0.000000000000e+000 0.000000000000e+000 0.000000000000e+000 0.000000000000e+000 2.479339084550e-019 
1.000000000000e-002 1.000000000000e-002 0.000000000000e+000 1.875000000000e+006 1.013250000000e+005 -1.773675000000e+006 9.000000000000e-001 1.000000000000e-001 0.000000000000e+000 0.000000000000e+000 0.000000000000e+000 0.000000000000e+000 3.500791676390e-020 
1.000000000000e-002 1.500000000000e-002 0.000000000000e+000 1.875000000000e+006 1.013250000000e+005 -1.773675000000e+006 9.000000000000e-001 1.000000000000e-001 0.000000000000e+000 0.000000000000e+000 0.000000000000e+000 0.000000000000e+000 2.946625399470e-018 
1.000000000000e-002 2.000000000000e-002 0.000000000000e+000 1.875000000000e+006 1.013250000000e+005 -1.773675000000e+006 9.000000000000e-001 1.000000000000e-001 0.000000000000e+000 0.000000000000e+000 0.000000000000e+000 0.000000000000e+000 4.682488176490e-021 
1.000000000000e-002 2.500000000000e-002 0.000000000000e+000 1.875000000000e+006 1.013250000000e+005 -1.773675000000e+006 9.000000000000e-001 1.000000000000e-001 0.000000000000e+000 0.000000000000e+000 0.000000000000e+000 0.000000000000e+000 2.400617149780e-018 
1.000000000000e-002 3.000000000000e-002 0.000000000000e+000 1.875000000000e+006 1.013250000000e+005 -1.773675000000e+006 9.000000000000e-001 1.000000000000e-001 0.000000000000e+000 0.000000000000e+000 0.000000000000e+000 0.000000000000e+000 5.242053555720e-019 
1.000000000000e-002 3.500000000000e-002 0.000000000000e+000 1.875000000000e+006 1.013250000000e+005 -1.773675000000e+006 9.000000000000e-001 1.000000000000e-001 0.000000000000e+000 0.000000000000e+000 0.000000000000e+000 0.000000000000e+000 6.744300123340e-019 
1.000000000000e-002 4.000000000000e-002 0.000000000000e+000 1.875000000000e+006 1.013250000000e+005 -1.773675000000e+006 9.000000000000e-001 1.000000000000e-001 0.000000000000e+000 0.000000000000e+000 0.000000000000e+000 0.000000000000e+000 1.478769644020e-018 
1.000000000000e-002 4.500000000000e-002 0.000000000000e+000 1.875000000000e+006 1.013250000000e+005 -1.773675000000e+006 9.000000000000e-001 1.000000000000e-001 0.000000000000e+000 0.000000000000e+000 0.000000000000e+000 0.000000000000e+000 5.616888007920e-019 
1.000000000000e-002 5.000000000000e-002 0.000000000000e+000 1.875000000000e+006 1.013250000000e+005 -1.773675000000e+006 9.000000000000e-001 1.000000000000e-001 0.000000000000e+000 0.000000000000e+000 0.000000000000e+000 0.000000000000e+000 2.979174287660e-019 
1.000000000000e-002 5.500000000000e-002 0.000000000000e+000 1.875000000000e+006 1.013250000000e+005 -1.773675000000e+006 9.000000000000e-001 1.000000000000e-001 0.000000000000e+000 0.000000000000e+000 0.000000000000e+000 0.000000000000e+000 1.213399555810e-016 
1.000000000000e-002 6.000000000000e-002 0.000000000000e+000 1.875000000000e+006 1.013250000000e+005 -1.773675000000e+006 9.000000000000e-001 1.000000000000e-001 0.000000000000e+000 0.000000000000e+000 0.000000000000e+000 0.000000000000e+000 6.313699234500e-019 
1.000000000000e-002 6.500000000000e-002 0.000000000000e+000 1.875000000000e+006 1.013250000000e+005 -1.773675000000e+006 9.000000000000e-001 1.000000000000e-001 0.000000000000e+000 0.000000000000e+000 0.000000000000e+000 0.000000000000e+000 6.867316825070e-019 
1.000000000000e-002 7.000000000000e-002 0.000000000000e+000 1.875000000000e+006 1.013250000000e+005 -1.773675000000e+006 9.000000000000e-001 1.000000000000e-001 0.000000000000e+000 0.000000000000e+000 0.000000000000e+000 0.000000000000e+000 9.739819899890e-018 
1.000000000000e-002 7.500000000000e-002 0.000000000000e+000 1.875000000000e+006 1.013250000000e+005 -1.773675000000e+006 9.000000000000e-001 1.000000000000e-001 0.000000000000e+000 0.000000000000e+000 0.000000000000e+000 0.000000000000e+000 7.378382118950e-019 
1.000000000000e-002 8.000000000000e-002 0.000000000000e+000 1.875000000000e+006 1.013250000000e+005 -1.773675000000e+006 9.000000000000e-001 1.000000000000e-001 0.000000000000e+000 0.000000000000e+000 0.000000000000e+000 0.000000000000e+000 7.521039588690e-020 
1.000000000000e-002 8.500000000000e-002 0.000000000000e+000 1.875000000000e+006 1.013250000000e+005 -1.773675000000e+006 9.000000000000e-001 1.000000000000e-001 0.000000000000e+000 0.000000000000e+000 0.000000000000e+000 0.000000000000e+000 4.972773577090e-019 
1.000000000000e-002 9.000000000000e-002 0.000000000000e+000 1.875000000000e+006 1.013250000000e+005 -1.773675000000e+006 9.000000000000e-001 1.000000000000e-001 0.000000000000e+000 0.000000000000e+000 0.000000000000e+000 0.000000000000e+000 2.474881818340e-018 
1.000000000000e-002 9.500000000000e-002 0.000000000000e+000 1.875000000000e+006 1.013250000000e+005 -1.773675000000e+006 9.000000000000e-001 1.000000000000e-001 0.000000000000e+000 0.000000000000e+000 0.000000000000e+000 0.000000000000e+000 5.992323096270e-019 
1.000000000000e-002 1.000000000000e-001 0.000000000000e+000 1.875000000000e+006 1.013250000000e+005 -1.773675000000e+006 9.000000000000e-001 1.000000000000e-001 0.000000000000e+000 0.000000000000e+000 0.000000000000e+000 0.000000000000e+000 1.267389491490e-018 
1.000000000000e-002 1.050000000000e-001 0.000000000000e+000 1.875000000000e+006 1.013250000000e+005 -1.773675000000e+006 9.000000000000e-001 1.000000000000e-001 0.000000000000e+000 0.000000000000e+000 0.000000000000e+000 0.000000000000e+000 3.624581469550e-019 
1.000000000000e-002 1.100000000000e-001 0.000000000000e+000 1.875000000000e+006 1.013250000000e+005 -1.773675000000e+006 9.000000000000e-001 1.000000000000e-001 0.000000000000e+000 0.000000000000e+000 0.000000000000e+000 0.000000000000e+000 4.688639272400e-018 
1.000000000000e-002 1.150000000000e-001 0.000000000000e+000 1.875000000000e+006 1.013250000000e+005 -1.773675000000e+006 9.000000000000e-001 1.000000000000e-001 0.000000000000e+000 0.000000000000e+000 0.000000000000e+000 0.000000000000e+000 3.192820804320e-019 
1.000000000000e-002 1.200000000000e-001 0.000000000000e+000 1.875000000000e+006 1.013250000000e+005 -1.773675000000e+006 9.000000000000e-001 1.000000000000e-001 0.000000000000e+000 0.000000000000e+000 0.000000000000e+000 0.000000000000e+000 4.808731318430e-018 
1.000000000000e-002 1.250000000000e-001 0.000000000000e+000 1.875000000000e+006 1.013250000000e+005 -1.773675000000e+006 9.000000000000e-001 1.000000000000e-001 0.000000000000e+000 0.000000000000e+000 0.000000000000e+000 0.000000000000e+000 5.219617073810e-019 
1.000000000000e-002 1.300000000000e-001 0.000000000000e+000 1.875000000000e+006 1.013250000000e+005 -1.773675000000e+006 9.000000000000e-001 1.000000000000e-001 0.000000000000e+000 0.000000000000e+000 0.000000000000e+000 0.000000000000e+000 5.319934353930e-018 
1.000000000000e-002 1.350000000000e-001 0.000000000000e+000 1.875000000000e+006 1.013250000000e+005 -1.773675000000e+006 9.000000000000e-001 1.000000000000e-001 0.000000000000e+000 0.000000000000e+000 0.000000000000e+000 0.000000000000e+000 9.772172637570e-018 
1.000000000000e-002 1.400000000000e-001 0.000000000000e+000 1.875000000000e+006 1.013250000000e+005 -1.773675000000e+006 9.000000000000e-001 1.000000000000e-001 0.000000000000e+000 0.000000000000e+000 0.000000000000e+000 0.000000000000e+000 3.027462182590e-018 
1.000000000000e-002 1.450000000000e-001 0.000000000000e+000 1.875000000000e+006 1.013250000000e+005 -1.773675000000e+006 9.000000000000e-001 1.000000000000e-001 0.000000000000e+000 0.000000000000e+000 0.000000000000e+000 0.000000000000e+000 7.816062571730e-019 
1.000000000000e-002 1.500000000000e-001 0.000000000000e+000 1.875000000000e+006 1.013250000000e+005 -1.773675000000e+006 9.000000000000e-001 1.000000000000e-001 0.000000000000e+000 0.000000000000e+000 0.000000000000e+000 0.000000000000e+000 2.384367281990e-018 